ITEM: TIMESTEP
0
ITEM: NUMBER OF ATOMS
4
ITEM: BOX BOUNDS
0.000000 4.038930
0.000000 4.038930
0.000000 4.038930
ITEM: ATOMS id type x y z
1 1 0.000000 0.000000 0.000000
2 1 0.000000 2.019465 2.019465
3 1 2.019465 0.000000 2.019465
4 1 2.019465 2.019465 0.000000
