ITEM: TIMESTEP
0
ITEM: NUMBER OF ATOMS
2
ITEM: BOX BOUNDS pp pp pp
0.0 2.87
0.0 2.87
0.0 2.87
ITEM: ATOMS x y z type id
0.0 0.0 0.0 1 1
1.435 1.435 1.435 1 2
