
     Program PWSCF v.7.2 starts on 24Jul2024 at 12:23:53 

     This program is part of the open-source Quantum ESPRESSO suite
     for quantum simulation of materials; please cite
         "P. Giannozzi et al., J. Phys.:Condens. Matter 21 395502 (2009);
         "P. Giannozzi et al., J. Phys.:Condens. Matter 29 465901 (2017);
         "P. Giannozzi et al., J. Chem. Phys. 152 154105 (2020);
          URL http://www.quantum-espresso.org", 
     in publications or presentations arising from this work. More details at
     http://www.quantum-espresso.org/quote

     Parallel version (MPI & OpenMP), running on       8 processor cores
     Number of MPI processes:                 1
     Threads/MPI process:                     8

     MPI processes distributed on     1 nodes
     4359 MiB available memory on the printing compute node when the environment starts

     Waiting for input...
     Reading input from standard input

     Current dimensions of program PWSCF are:
     Max number of different atomic species (ntypx) = 10
     Max number of k-points (npk) =  40000
     Max angular momentum in pseudopotentials (lmaxx) =  4

     gamma-point specific algorithms are used
     Found identity + ( -0.5000 -0.5000  0.0000) symmetry
     This is a supercell, fractional translations are disabled
     Message from routine setup:
     using ibrav=0 with symmetry is DISCOURAGED, use correct ibrav instead

     Subspace diagonalization in iterative solution of the eigenvalue problem:
     a serial algorithm will be used


     G-vector sticks info
     --------------------
     sticks:   dense  smooth     PW     G-vecs:    dense   smooth      PW
     Sum         405     405    101                 6043     6043     751

     Using Slab Decomposition



     bravais-lattice index     =            0
     lattice parameter (alat)  =      10.2612  a.u.
     unit-cell volume          =    1080.4286 (a.u.)^3
     number of atoms/cell      =            8
     number of atomic types    =            1
     number of electrons       =        32.00
     number of Kohn-Sham states=           16
     kinetic-energy cutoff     =      12.0000  Ry
     charge density cutoff     =      48.0000  Ry
     scf convergence threshold =      1.0E-06
     mixing beta               =       0.7000
     number of iterations used =            8  plain     mixing
     energy convergence thresh.=      1.0E-04
     force convergence thresh. =      1.0E-03
     press convergence thresh. =      5.0E-01
     Exchange-correlation= PBE
                           (   1   4   3   4   0   0   0)
     nstep                     =           50


     celldm(1)=  10.261213  celldm(2)=   0.000000  celldm(3)=   0.000000
     celldm(4)=   0.000000  celldm(5)=   0.000000  celldm(6)=   0.000000

     crystal axes: (cart. coord. in units of alat)
               a(1) = (   1.000000   0.000000   0.000000 )  
               a(2) = (   0.000000   1.000000   0.000000 )  
               a(3) = (   0.000000   0.000000   1.000000 )  

     reciprocal axes: (cart. coord. in units 2 pi/alat)
               b(1) = (  1.000000  0.000000  0.000000 )  
               b(2) = (  0.000000  1.000000  0.000000 )  
               b(3) = (  0.000000  0.000000  1.000000 )  


     PseudoPot. # 1 for Si read from file:
     /mnt/c/Users/menon/Documents/repos/projects-iuc17/atomRDF/examples/workflow_examples/qe_run/Si.pbe-n-rrkjus_psl.1.0.0.UPF
     MD5 check sum: 0b0bb1205258b0d07b9f9672cf965d36
     Pseudo is Ultrasoft + core correction, Zval =  4.0
     Generated using "atomic" code by A. Dal Corso  v.5.1
     Using radial grid of 1141 points,  6 beta functions with: 
                l(1) =   0
                l(2) =   0
                l(3) =   1
                l(4) =   1
                l(5) =   2
                l(6) =   2
     Q(r) pseudized with 0 coefficients 


     atomic species   valence    mass     pseudopotential
        Si             4.00    28.08500     Si( 1.00)

     24 Sym. Ops. (no inversion) found



   Cartesian axes

     site n.     atom                  positions (alat units)
         1           Si  tau(   1) = (   0.0000000   0.0000000   0.0000000  )
         2           Si  tau(   2) = (   0.2500000   0.2500000   0.2500000  )
         3           Si  tau(   3) = (   0.5000000   0.5000000   0.0000000  )
         4           Si  tau(   4) = (   0.7500000   0.7500000   0.2500000  )
         5           Si  tau(   5) = (   0.5000000   0.0000000   0.5000000  )
         6           Si  tau(   6) = (   0.0000000   0.5000000   0.5000000  )
         7           Si  tau(   7) = (   0.7500000   0.2500000   0.7500000  )
         8           Si  tau(   8) = (   0.2500000   0.7500000   0.7500000  )

     number of k points=     1
                       cart. coord. in units 2pi/alat
        k(    1) = (   0.0000000   0.0000000   0.0000000), wk =   2.0000000

     Dense  grid:     3022 G-vectors     FFT dimensions: (  24,  24,  24)

     Estimated max dynamical RAM per process >      13.89 MB

     Check: negative core charge=   -0.000072

     Initial potential from superposition of free atoms

     starting charge      31.9955, renormalised to      32.0000
     Starting wfcs are   32 randomized atomic wfcs

     total cpu time spent up to now is        1.3 secs

     per-process dynamical memory:    14.5 Mb

     Self-consistent Calculation

     iteration #  1     ecut=    12.00 Ry     beta= 0.70
     Davidson diagonalization with overlap
     ethr =  1.00E-02,  avg # of iterations =  2.0

     total cpu time spent up to now is        5.9 secs

     total energy              =     -90.54652127 Ry
     estimated scf accuracy    <       0.40777631 Ry

     iteration #  2     ecut=    12.00 Ry     beta= 0.70
     Davidson diagonalization with overlap
     ethr =  1.27E-03,  avg # of iterations =  1.0

     total cpu time spent up to now is       19.4 secs

     total energy              =     -90.57183176 Ry
     estimated scf accuracy    <       0.02254330 Ry

     iteration #  3     ecut=    12.00 Ry     beta= 0.70
     Davidson diagonalization with overlap
     ethr =  7.04E-05,  avg # of iterations =  4.0

     total cpu time spent up to now is       22.0 secs

     total energy              =     -90.57716311 Ry
     estimated scf accuracy    <       0.00053240 Ry

     iteration #  4     ecut=    12.00 Ry     beta= 0.70
     Davidson diagonalization with overlap
     ethr =  1.66E-06,  avg # of iterations =  4.0

     total cpu time spent up to now is       23.2 secs

     total energy              =     -90.57752610 Ry
     estimated scf accuracy    <       0.00001384 Ry

     iteration #  5     ecut=    12.00 Ry     beta= 0.70
     Davidson diagonalization with overlap
     ethr =  4.33E-08,  avg # of iterations = 12.0

     total cpu time spent up to now is       24.7 secs

     total energy              =     -90.57756342 Ry
     estimated scf accuracy    <       0.00001673 Ry

     iteration #  6     ecut=    12.00 Ry     beta= 0.70
     Davidson diagonalization with overlap
     ethr =  4.33E-08,  avg # of iterations =  2.0

     total cpu time spent up to now is       25.8 secs

     total energy              =     -90.57756299 Ry
     estimated scf accuracy    <       0.00000660 Ry

     iteration #  7     ecut=    12.00 Ry     beta= 0.70
     Davidson diagonalization with overlap
     ethr =  2.06E-08,  avg # of iterations =  6.0

     total cpu time spent up to now is       27.1 secs

     End of self-consistent calculation

          k = 0.0000 0.0000 0.0000 (   376 PWs)   bands (ev):

    -5.4895  -1.3200  -1.3197  -1.3196  -1.3194  -1.3193  -1.3191   3.6065
     3.6066   3.6069   3.6069   3.6070   3.6072   6.5657   6.5658   6.5658

     highest occupied level (ev):     6.5658

!    total energy              =     -90.57756447 Ry
     estimated scf accuracy    <       0.00000060 Ry

     The total energy is the sum of the following terms:
     one-electron contribution =      21.10844203 Ry
     hartree contribution      =       5.12141080 Ry
     xc contribution           =     -49.61164236 Ry
     ewald contribution        =     -67.19577493 Ry

     convergence has been achieved in   7 iterations

     Forces acting on atoms (cartesian axes, Ry/au):

     atom    1 type  1   force =     0.00000000    0.00000000    0.00000000
     atom    2 type  1   force =    -0.00002036   -0.00002036   -0.00002036
     atom    3 type  1   force =     0.00000000    0.00000000    0.00000000
     atom    4 type  1   force =     0.00002036    0.00002036   -0.00002036
     atom    5 type  1   force =     0.00000000    0.00000000    0.00000000
     atom    6 type  1   force =     0.00000000    0.00000000    0.00000000
     atom    7 type  1   force =     0.00002036   -0.00002036    0.00002036
     atom    8 type  1   force =    -0.00002036    0.00002036    0.00002036
     The non-local contrib.  to forces
     atom    1 type  1   force =     0.00000000    0.00000000    0.00000000
     atom    2 type  1   force =     0.00007192    0.00007192    0.00007192
     atom    3 type  1   force =     0.00000000    0.00000000    0.00000000
     atom    4 type  1   force =    -0.00007192   -0.00007192    0.00007192
     atom    5 type  1   force =     0.00000000    0.00000000    0.00000000
     atom    6 type  1   force =     0.00000000    0.00000000    0.00000000
     atom    7 type  1   force =    -0.00007192    0.00007192   -0.00007192
     atom    8 type  1   force =     0.00007192   -0.00007192   -0.00007192
     The ionic contribution  to forces
     atom    1 type  1   force =    -0.00000000   -0.00000000   -0.00000000
     atom    2 type  1   force =    -0.00000000   -0.00000000   -0.00000000
     atom    3 type  1   force =    -0.00000000   -0.00000000   -0.00000000
     atom    4 type  1   force =     0.00000000    0.00000000    0.00000000
     atom    5 type  1   force =     0.00000000   -0.00000000   -0.00000000
     atom    6 type  1   force =    -0.00000000    0.00000000   -0.00000000
     atom    7 type  1   force =     0.00000000    0.00000000    0.00000000
     atom    8 type  1   force =     0.00000000    0.00000000    0.00000000
     The local contribution  to forces
     atom    1 type  1   force =     0.00006066    0.00003120    0.00034406
     atom    2 type  1   force =    -0.00002998   -0.00035840   -0.00027670
     atom    3 type  1   force =    -0.00005916   -0.00002379    0.00001492
     atom    4 type  1   force =     0.00002877    0.00026485   -0.00002479
     atom    5 type  1   force =     0.00007431   -0.00013821   -0.00044926
     atom    6 type  1   force =    -0.00011832    0.00011430   -0.00004043
     atom    7 type  1   force =     0.00008528    0.00008414    0.00019485
     atom    8 type  1   force =    -0.00002087   -0.00003137    0.00016384
     The core correction contribution to forces
     atom    1 type  1   force =    -0.00000785   -0.00000235    0.00001430
     atom    2 type  1   force =    -0.00001312   -0.00002201   -0.00000916
     atom    3 type  1   force =    -0.00000809    0.00000584    0.00000050
     atom    4 type  1   force =     0.00001053    0.00001786   -0.00000494
     atom    5 type  1   force =     0.00001025   -0.00000869   -0.00001631
     atom    6 type  1   force =    -0.00000242    0.00000395   -0.00000608
     atom    7 type  1   force =     0.00000444    0.00000289    0.00000848
     atom    8 type  1   force =    -0.00000104   -0.00000937    0.00001260
     The Hubbard contrib.    to forces
     atom    1 type  1   force =     0.00000000    0.00000000    0.00000000
     atom    2 type  1   force =     0.00000000    0.00000000    0.00000000
     atom    3 type  1   force =     0.00000000    0.00000000    0.00000000
     atom    4 type  1   force =     0.00000000    0.00000000    0.00000000
     atom    5 type  1   force =     0.00000000    0.00000000    0.00000000
     atom    6 type  1   force =     0.00000000    0.00000000    0.00000000
     atom    7 type  1   force =     0.00000000    0.00000000    0.00000000
     atom    8 type  1   force =     0.00000000    0.00000000    0.00000000
     The SCF correction term to forces
     atom    1 type  1   force =    -0.00001834   -0.00008830   -0.00020899
     atom    2 type  1   force =    -0.00011106    0.00017867    0.00019590
     atom    3 type  1   force =    -0.00007178    0.00006380   -0.00010055
     atom    4 type  1   force =     0.00013088   -0.00009519    0.00003662
     atom    5 type  1   force =    -0.00007120    0.00002787    0.00034761
     atom    6 type  1   force =     0.00014737    0.00000654    0.00002082
     atom    7 type  1   force =    -0.00001353   -0.00012386   -0.00012195
     atom    8 type  1   force =    -0.00003349    0.00004357   -0.00011847

     Total force =     0.000071     Total SCF correction =     0.000615
     SCF correction compared to forces is large: reduce conv_thr to get better values


     Computing stress (Cartesian axis) and pressure

          total   stress  (Ry/bohr**3)                   (kbar)     P=      123.02
   0.00083624   0.00000000   0.00000000          123.02        0.00        0.00
   0.00000000   0.00083624   0.00000000            0.00      123.02        0.00
   0.00000000   0.00000000   0.00083624            0.00        0.00      123.02


     BFGS Geometry Optimization
     Energy error            =      0.0E+00 Ry
     Gradient error          =      2.0E-05 Ry/Bohr
     Cell gradient error     =      1.2E+02 kbar

     number of scf cycles    =   1
     number of bfgs steps    =   0

     enthalpy           new  =     -90.5775644657 Ry

     new trust radius        =       0.1374362158 bohr
     new conv_thr            =       0.0000010000 Ry

     new unit-cell volume =   1149.61784 a.u.^3 (   170.35579 Ang^3 )
     density =      2.19006 g/cm^3

CELL_PARAMETERS (angstrom)
   5.543520156   0.000000000   0.000000000
   0.000000000   5.543520156   0.000000000
   0.000000000   0.000000000   5.543520156

ATOMIC_POSITIONS (crystal)
Si            0.0000000000        0.0000000000        0.0000000000
Si            0.2499980162        0.2499980162        0.2499980162
Si            0.5000000000        0.5000000000        0.0000000000
Si            0.7500019838        0.7500019838        0.2499980162
Si            0.5000000000        0.0000000000        0.5000000000
Si            0.0000000000        0.5000000000        0.5000000000
Si            0.7500019838        0.2499980162        0.7500019838
Si            0.2499980162        0.7500019838        0.7500019838



     Writing config-only to output data dir ./silicon.save/
     NEW-OLD atomic charge density approx. for the potential

     Check: negative core charge=   -0.000072
     extrapolated charge   33.92564, renormalised to   32.00000

     total cpu time spent up to now is       29.6 secs

     per-process dynamical memory:    24.2 Mb

     Self-consistent Calculation

     iteration #  1     ecut=    12.00 Ry     beta= 0.70
     Davidson diagonalization with overlap
     ethr =  1.00E-06,  avg # of iterations =  7.0

     total cpu time spent up to now is       31.4 secs

     total energy              =     -90.61072311 Ry
     estimated scf accuracy    <       0.00368751 Ry

     iteration #  2     ecut=    12.00 Ry     beta= 0.70
     Davidson diagonalization with overlap
     ethr =  1.15E-05,  avg # of iterations =  3.0

     total cpu time spent up to now is       33.0 secs

     total energy              =     -90.62113423 Ry
     estimated scf accuracy    <       0.00369455 Ry

     iteration #  3     ecut=    12.00 Ry     beta= 0.70
     Davidson diagonalization with overlap
     ethr =  1.15E-05,  avg # of iterations =  1.0

     total cpu time spent up to now is       34.1 secs

     total energy              =     -90.62062669 Ry
     estimated scf accuracy    <       0.00135264 Ry

     iteration #  4     ecut=    12.00 Ry     beta= 0.70
     Davidson diagonalization with overlap
     ethr =  4.23E-06,  avg # of iterations =  2.0

     total cpu time spent up to now is       35.8 secs

     total energy              =     -90.62078477 Ry
     estimated scf accuracy    <       0.00008330 Ry

     iteration #  5     ecut=    12.00 Ry     beta= 0.70
     Davidson diagonalization with overlap
     ethr =  2.60E-07,  avg # of iterations =  1.0

     total cpu time spent up to now is       37.0 secs

     total energy              =     -90.62078680 Ry
     estimated scf accuracy    <       0.00000426 Ry

     iteration #  6     ecut=    12.00 Ry     beta= 0.70
     Davidson diagonalization with overlap
     ethr =  1.33E-08,  avg # of iterations =  5.0

     total cpu time spent up to now is       38.1 secs

     total energy              =     -90.62078887 Ry
     estimated scf accuracy    <       0.00000122 Ry

     iteration #  7     ecut=    12.00 Ry     beta= 0.70
     Davidson diagonalization with overlap
     ethr =  3.82E-09,  avg # of iterations =  1.0

     total cpu time spent up to now is       39.1 secs

     End of self-consistent calculation

          k = 0.0000 0.0000 0.0000 (   376 PWs)   bands (ev):

    -5.7124  -1.7659  -1.7658  -1.7658  -1.7658  -1.7658  -1.7658   3.1299
     3.1300   3.1300   3.1300   3.1300   3.1300   5.9187   5.9187   5.9187

     highest occupied level (ev):     5.9187

!    total energy              =     -90.62078883 Ry
     estimated scf accuracy    <       0.00000020 Ry

     The total energy is the sum of the following terms:
     one-electron contribution =      19.18165229 Ry
     hartree contribution      =       5.32938281 Ry
     xc contribution           =     -49.31208346 Ry
     ewald contribution        =     -65.81974046 Ry

     convergence has been achieved in   7 iterations

     Forces acting on atoms (cartesian axes, Ry/au):

     atom    1 type  1   force =     0.00000000    0.00000000    0.00000000
     atom    2 type  1   force =     0.00000506    0.00000506    0.00000506
     atom    3 type  1   force =     0.00000000    0.00000000    0.00000000
     atom    4 type  1   force =    -0.00000506   -0.00000506    0.00000506
     atom    5 type  1   force =     0.00000000    0.00000000    0.00000000
     atom    6 type  1   force =     0.00000000    0.00000000    0.00000000
     atom    7 type  1   force =    -0.00000506    0.00000506   -0.00000506
     atom    8 type  1   force =     0.00000506   -0.00000506   -0.00000506
     The non-local contrib.  to forces
     atom    1 type  1   force =     0.00000000    0.00000000    0.00000000
     atom    2 type  1   force =     0.00001377    0.00001377    0.00001377
     atom    3 type  1   force =     0.00000000    0.00000000    0.00000000
     atom    4 type  1   force =    -0.00001377   -0.00001377    0.00001377
     atom    5 type  1   force =     0.00000000    0.00000000    0.00000000
     atom    6 type  1   force =     0.00000000    0.00000000    0.00000000
     atom    7 type  1   force =    -0.00001377    0.00001377   -0.00001377
     atom    8 type  1   force =     0.00001377   -0.00001377   -0.00001377
     The ionic contribution  to forces
     atom    1 type  1   force =    -0.00000000   -0.00000000   -0.00000000
     atom    2 type  1   force =     0.00002941    0.00002941    0.00002941
     atom    3 type  1   force =     0.00000000    0.00000000   -0.00000000
     atom    4 type  1   force =    -0.00002941   -0.00002941    0.00002941
     atom    5 type  1   force =     0.00000000   -0.00000000    0.00000000
     atom    6 type  1   force =    -0.00000000    0.00000000    0.00000000
     atom    7 type  1   force =    -0.00002941    0.00002941   -0.00002941
     atom    8 type  1   force =     0.00002941   -0.00002941   -0.00002941
     The local contribution  to forces
     atom    1 type  1   force =     0.00000296    0.00001306    0.00002360
     atom    2 type  1   force =    -0.00004768   -0.00005891   -0.00004747
     atom    3 type  1   force =     0.00000171   -0.00000326   -0.00002058
     atom    4 type  1   force =     0.00002934    0.00004953   -0.00003404
     atom    5 type  1   force =     0.00000718   -0.00000914   -0.00002068
     atom    6 type  1   force =    -0.00000602   -0.00001305    0.00001725
     atom    7 type  1   force =     0.00003344    0.00000002    0.00004149
     atom    8 type  1   force =    -0.00002640    0.00000545    0.00004827
     The core correction contribution to forces
     atom    1 type  1   force =    -0.00000062    0.00000100    0.00000129
     atom    2 type  1   force =    -0.00000314   -0.00000409   -0.00000119
     atom    3 type  1   force =    -0.00000112    0.00000059   -0.00000100
     atom    4 type  1   force =     0.00000179    0.00000344   -0.00000147
     atom    5 type  1   force =     0.00000063   -0.00000092   -0.00000069
     atom    6 type  1   force =     0.00000109   -0.00000176    0.00000103
     atom    7 type  1   force =     0.00000050    0.00000186    0.00000070
     atom    8 type  1   force =    -0.00000014   -0.00000204    0.00000276
     The Hubbard contrib.    to forces
     atom    1 type  1   force =     0.00000000    0.00000000    0.00000000
     atom    2 type  1   force =     0.00000000    0.00000000    0.00000000
     atom    3 type  1   force =     0.00000000    0.00000000    0.00000000
     atom    4 type  1   force =     0.00000000    0.00000000    0.00000000
     atom    5 type  1   force =     0.00000000    0.00000000    0.00000000
     atom    6 type  1   force =     0.00000000    0.00000000    0.00000000
     atom    7 type  1   force =     0.00000000    0.00000000    0.00000000
     atom    8 type  1   force =     0.00000000    0.00000000    0.00000000
     The SCF correction term to forces
     atom    1 type  1   force =     0.00000041   -0.00000269   -0.00000333
     atom    2 type  1   force =    -0.00000123    0.00000134    0.00000155
     atom    3 type  1   force =    -0.00000492    0.00000235    0.00000206
     atom    4 type  1   force =     0.00000361   -0.00000014   -0.00000277
     atom    5 type  1   force =    -0.00000309    0.00000089    0.00000439
     atom    6 type  1   force =     0.00000438    0.00000131   -0.00000102
     atom    7 type  1   force =     0.00000337   -0.00000772   -0.00000193
     atom    8 type  1   force =    -0.00000227    0.00000379    0.00000046

     Total force =     0.000018     Total SCF correction =     0.000015
     SCF correction compared to forces is large: reduce conv_thr to get better values


     Computing stress (Cartesian axis) and pressure

          total   stress  (Ry/bohr**3)                   (kbar)     P=       64.57
   0.00043895   0.00000000   0.00000000           64.57        0.00        0.00
   0.00000000   0.00043895   0.00000000            0.00       64.57        0.00
   0.00000000   0.00000000   0.00043895            0.00        0.00       64.57

     Energy error            =      4.3E-02 Ry
     Gradient error          =      5.1E-06 Ry/Bohr
     Cell gradient error     =      6.5E+01 kbar

     number of scf cycles    =   2
     number of bfgs steps    =   1

     enthalpy           old  =     -90.5775644657 Ry
     enthalpy           new  =     -90.6207888314 Ry

     CASE: enthalpy          _new < enthalpy          _old

     new trust radius        =       0.1527519540 bohr
     new conv_thr            =       0.0000000100 Ry

     new unit-cell volume =   1229.06911 a.u.^3 (   182.12925 Ang^3 )
     density =      2.04849 g/cm^3

CELL_PARAMETERS (angstrom)
   5.668392327   0.000000000   0.000000000
   0.000000000   5.668392327   0.000000000
   0.000000000   0.000000000   5.668392327

ATOMIC_POSITIONS (crystal)
Si            0.0000000000        0.0000000000        0.0000000000
Si            0.2499990275        0.2499990275        0.2499990275
Si            0.5000000000        0.5000000000        0.0000000000
Si            0.7500009725        0.7500009725        0.2499990275
Si            0.5000000000        0.0000000000        0.5000000000
Si            0.0000000000        0.5000000000        0.5000000000
Si            0.7500009725        0.2499990275        0.7500009725
Si            0.2499990275        0.7500009725        0.7500009725



     Writing config-only to output data dir ./silicon.save/
     NEW-OLD atomic charge density approx. for the potential

     Check: negative core charge=   -0.000095
     extrapolated charge   34.06830, renormalised to   32.00000

     total cpu time spent up to now is       40.7 secs

     per-process dynamical memory:    39.5 Mb

     Self-consistent Calculation

     iteration #  1     ecut=    12.00 Ry     beta= 0.70
     Davidson diagonalization with overlap
     ethr =  1.00E-06,  avg # of iterations =  7.0

     total cpu time spent up to now is       41.9 secs

     total energy              =     -90.63040646 Ry
     estimated scf accuracy    <       0.00470805 Ry

     iteration #  2     ecut=    12.00 Ry     beta= 0.70
     Davidson diagonalization with overlap
     ethr =  1.47E-05,  avg # of iterations =  3.0

     total cpu time spent up to now is       43.1 secs

     total energy              =     -90.64297128 Ry
     estimated scf accuracy    <       0.00430732 Ry

     iteration #  3     ecut=    12.00 Ry     beta= 0.70
     Davidson diagonalization with overlap
     ethr =  1.35E-05,  avg # of iterations =  1.0

     total cpu time spent up to now is       43.9 secs

     total energy              =     -90.64240346 Ry
     estimated scf accuracy    <       0.00152252 Ry

     iteration #  4     ecut=    12.00 Ry     beta= 0.70
     Davidson diagonalization with overlap
     ethr =  4.76E-06,  avg # of iterations =  2.0

     total cpu time spent up to now is       44.8 secs

     total energy              =     -90.64258153 Ry
     estimated scf accuracy    <       0.00009162 Ry

     iteration #  5     ecut=    12.00 Ry     beta= 0.70
     Davidson diagonalization with overlap
     ethr =  2.86E-07,  avg # of iterations =  1.0

     total cpu time spent up to now is       46.2 secs

     total energy              =     -90.64258375 Ry
     estimated scf accuracy    <       0.00000459 Ry

     iteration #  6     ecut=    12.00 Ry     beta= 0.70
     Davidson diagonalization with overlap
     ethr =  1.43E-08,  avg # of iterations =  3.0

     total cpu time spent up to now is       47.3 secs

     total energy              =     -90.64258550 Ry
     estimated scf accuracy    <       0.00000073 Ry

     iteration #  7     ecut=    12.00 Ry     beta= 0.70
     Davidson diagonalization with overlap
     ethr =  2.27E-09,  avg # of iterations =  2.0

     total cpu time spent up to now is       49.5 secs

     total energy              =     -90.64258557 Ry
     estimated scf accuracy    <       0.00000007 Ry

     iteration #  8     ecut=    12.00 Ry     beta= 0.70
     Davidson diagonalization with overlap
     ethr =  2.26E-10,  avg # of iterations =  4.0

     total cpu time spent up to now is       50.7 secs

     total energy              =     -90.64258559 Ry
     estimated scf accuracy    <       0.00000002 Ry

     iteration #  9     ecut=    12.00 Ry     beta= 0.70
     Davidson diagonalization with overlap
     ethr =  7.29E-11,  avg # of iterations =  2.0

     total cpu time spent up to now is       51.8 secs

     total energy              =     -90.64258559 Ry
     estimated scf accuracy    <       0.00000001 Ry

     iteration # 10     ecut=    12.00 Ry     beta= 0.70
     Davidson diagonalization with overlap
     ethr =  3.36E-11,  avg # of iterations =  2.0

     total cpu time spent up to now is       52.8 secs

     End of self-consistent calculation

          k = 0.0000 0.0000 0.0000 (   376 PWs)   bands (ev):

    -5.9392  -2.2232  -2.2231  -2.2231  -2.2231  -2.2231  -2.2231   2.6491
     2.6491   2.6491   2.6491   2.6491   2.6491   5.2619   5.2619   5.2619

     highest occupied level (ev):     5.2619

!    total energy              =     -90.64258559 Ry
     estimated scf accuracy    <          1.2E-10 Ry

     The total energy is the sum of the following terms:
     one-electron contribution =      17.18330635 Ry
     hartree contribution      =       5.55416409 Ry
     xc contribution           =     -49.01029528 Ry
     ewald contribution        =     -64.36976075 Ry

     convergence has been achieved in  10 iterations

     Forces acting on atoms (cartesian axes, Ry/au):

     atom    1 type  1   force =     0.00000000    0.00000000    0.00000000
     atom    2 type  1   force =     0.00000258    0.00000258    0.00000258
     atom    3 type  1   force =     0.00000000    0.00000000    0.00000000
     atom    4 type  1   force =    -0.00000258   -0.00000258    0.00000258
     atom    5 type  1   force =     0.00000000    0.00000000    0.00000000
     atom    6 type  1   force =     0.00000000    0.00000000    0.00000000
     atom    7 type  1   force =    -0.00000258    0.00000258   -0.00000258
     atom    8 type  1   force =     0.00000258   -0.00000258   -0.00000258
     The non-local contrib.  to forces
     atom    1 type  1   force =     0.00000000    0.00000000    0.00000000
     atom    2 type  1   force =     0.00000496    0.00000496    0.00000496
     atom    3 type  1   force =     0.00000000    0.00000000    0.00000000
     atom    4 type  1   force =    -0.00000496   -0.00000496    0.00000496
     atom    5 type  1   force =     0.00000000    0.00000000    0.00000000
     atom    6 type  1   force =     0.00000000    0.00000000    0.00000000
     atom    7 type  1   force =    -0.00000496    0.00000496   -0.00000496
     atom    8 type  1   force =     0.00000496   -0.00000496   -0.00000496
     The ionic contribution  to forces
     atom    1 type  1   force =    -0.00000000   -0.00000000   -0.00000000
     atom    2 type  1   force =     0.00001379    0.00001379    0.00001379
     atom    3 type  1   force =    -0.00000000   -0.00000000   -0.00000000
     atom    4 type  1   force =    -0.00001379   -0.00001379    0.00001379
     atom    5 type  1   force =    -0.00000000   -0.00000000   -0.00000000
     atom    6 type  1   force =    -0.00000000   -0.00000000   -0.00000000
     atom    7 type  1   force =    -0.00001379    0.00001379   -0.00001379
     atom    8 type  1   force =     0.00001379   -0.00001379   -0.00001379
     The local contribution  to forces
     atom    1 type  1   force =    -0.00000092   -0.00000010    0.00000030
     atom    2 type  1   force =    -0.00001915   -0.00001568   -0.00001495
     atom    3 type  1   force =    -0.00000136    0.00000143   -0.00000298
     atom    4 type  1   force =     0.00001773    0.00001687   -0.00001667
     atom    5 type  1   force =     0.00000030   -0.00000047    0.00000095
     atom    6 type  1   force =     0.00000140   -0.00000146    0.00000184
     atom    7 type  1   force =     0.00001714   -0.00001427    0.00001570
     atom    8 type  1   force =    -0.00001602    0.00001234    0.00001718
     The core correction contribution to forces
     atom    1 type  1   force =    -0.00000021    0.00000003    0.00000010
     atom    2 type  1   force =    -0.00000035   -0.00000029    0.00000007
     atom    3 type  1   force =    -0.00000017    0.00000020   -0.00000012
     atom    4 type  1   force =     0.00000024    0.00000036   -0.00000010
     atom    5 type  1   force =     0.00000010   -0.00000006    0.00000000
     atom    6 type  1   force =     0.00000017   -0.00000023    0.00000005
     atom    7 type  1   force =    -0.00000005    0.00000015   -0.00000001
     atom    8 type  1   force =     0.00000009   -0.00000033    0.00000025
     The Hubbard contrib.    to forces
     atom    1 type  1   force =     0.00000000    0.00000000    0.00000000
     atom    2 type  1   force =     0.00000000    0.00000000    0.00000000
     atom    3 type  1   force =     0.00000000    0.00000000    0.00000000
     atom    4 type  1   force =     0.00000000    0.00000000    0.00000000
     atom    5 type  1   force =     0.00000000    0.00000000    0.00000000
     atom    6 type  1   force =     0.00000000    0.00000000    0.00000000
     atom    7 type  1   force =     0.00000000    0.00000000    0.00000000
     atom    8 type  1   force =     0.00000000    0.00000000    0.00000000
     The SCF correction term to forces
     atom    1 type  1   force =    -0.00000003    0.00000013    0.00000147
     atom    2 type  1   force =     0.00000129   -0.00000147    0.00000012
     atom    3 type  1   force =     0.00000015   -0.00000024    0.00000127
     atom    4 type  1   force =    -0.00000119    0.00000142    0.00000025
     atom    5 type  1   force =     0.00000019    0.00000036   -0.00000138
     atom    6 type  1   force =    -0.00000024   -0.00000015   -0.00000121
     atom    7 type  1   force =    -0.00000139   -0.00000121   -0.00000035
     atom    8 type  1   force =     0.00000110    0.00000125   -0.00000024

     Total force =     0.000009     Total SCF correction =     0.000005
     SCF correction compared to forces is large: reduce conv_thr to get better values


     Computing stress (Cartesian axis) and pressure

          total   stress  (Ry/bohr**3)                   (kbar)     P=       19.90
   0.00013531   0.00000000   0.00000000           19.90        0.00        0.00
   0.00000000   0.00013531   0.00000000            0.00       19.90        0.00
   0.00000000   0.00000000   0.00013531            0.00        0.00       19.90

     Energy error            =      2.2E-02 Ry
     Gradient error          =      2.6E-06 Ry/Bohr
     Cell gradient error     =      2.0E+01 kbar

     number of scf cycles    =   3
     number of bfgs steps    =   2

     enthalpy           old  =     -90.6207888314 Ry
     enthalpy           new  =     -90.6425855893 Ry

     CASE: enthalpy          _new < enthalpy          _old

     new trust radius        =       0.0734572327 bohr
     new conv_thr            =       0.0000000100 Ry

     new unit-cell volume =   1268.10427 a.u.^3 (   187.91367 Ang^3 )
     density =      1.98543 g/cm^3

CELL_PARAMETERS (angstrom)
   5.727777266   0.000000000   0.000000000
   0.000000000   5.727777266   0.000000000
   0.000000000   0.000000000   5.727777266

ATOMIC_POSITIONS (crystal)
Si            0.0000000000        0.0000000000        0.0000000000
Si            0.2499996565        0.2499996565        0.2499996565
Si            0.5000000000        0.5000000000        0.0000000000
Si            0.7500003435        0.7500003435        0.2499996565
Si            0.5000000000        0.0000000000        0.5000000000
Si            0.0000000000        0.5000000000        0.5000000000
Si            0.7500003435        0.2499996565        0.7500003435
Si            0.2499996565        0.7500003435        0.7500003435



     Writing config-only to output data dir ./silicon.save/
     NEW-OLD atomic charge density approx. for the potential

     Check: negative core charge=   -0.000115
     extrapolated charge   32.98490, renormalised to   32.00000

     total cpu time spent up to now is       54.4 secs

     per-process dynamical memory:    39.5 Mb

     Self-consistent Calculation

     iteration #  1     ecut=    12.00 Ry     beta= 0.70
     Davidson diagonalization with overlap
     ethr =  1.00E-06,  avg # of iterations =  5.0

     total cpu time spent up to now is       56.2 secs

     total energy              =     -90.64311777 Ry
     estimated scf accuracy    <       0.00119821 Ry

     iteration #  2     ecut=    12.00 Ry     beta= 0.70
     Davidson diagonalization with overlap
     ethr =  3.74E-06,  avg # of iterations =  3.0

     total cpu time spent up to now is       57.3 secs

     total energy              =     -90.64601391 Ry
     estimated scf accuracy    <       0.00094822 Ry

     iteration #  3     ecut=    12.00 Ry     beta= 0.70
     Davidson diagonalization with overlap
     ethr =  2.96E-06,  avg # of iterations =  1.0

     total cpu time spent up to now is       58.2 secs

     total energy              =     -90.64590102 Ry
     estimated scf accuracy    <       0.00031725 Ry

     iteration #  4     ecut=    12.00 Ry     beta= 0.70
     Davidson diagonalization with overlap
     ethr =  9.91E-07,  avg # of iterations =  2.0

     total cpu time spent up to now is       59.2 secs

     total energy              =     -90.64593651 Ry
     estimated scf accuracy    <       0.00001641 Ry

     iteration #  5     ecut=    12.00 Ry     beta= 0.70
     Davidson diagonalization with overlap
     ethr =  5.13E-08,  avg # of iterations =  1.0

     total cpu time spent up to now is       60.3 secs

     total energy              =     -90.64593688 Ry
     estimated scf accuracy    <       0.00000091 Ry

     iteration #  6     ecut=    12.00 Ry     beta= 0.70
     Davidson diagonalization with overlap
     ethr =  2.84E-09,  avg # of iterations =  3.0

     total cpu time spent up to now is       61.6 secs

     total energy              =     -90.64593720 Ry
     estimated scf accuracy    <       0.00000023 Ry

     iteration #  7     ecut=    12.00 Ry     beta= 0.70
     Davidson diagonalization with overlap
     ethr =  7.22E-10,  avg # of iterations =  2.0

     total cpu time spent up to now is       62.6 secs

     total energy              =     -90.64593719 Ry
     estimated scf accuracy    <       0.00000007 Ry

     iteration #  8     ecut=    12.00 Ry     beta= 0.70
     Davidson diagonalization with overlap
     ethr =  2.08E-10,  avg # of iterations =  1.0

     total cpu time spent up to now is       63.6 secs

     End of self-consistent calculation

          k = 0.0000 0.0000 0.0000 (   376 PWs)   bands (ev):

    -6.0392  -2.4286  -2.4285  -2.4285  -2.4285  -2.4285  -2.4285   2.4359
     2.4359   2.4359   2.4359   2.4359   2.4359   4.9683   4.9683   4.9683

     highest occupied level (ev):     4.9683

!    total energy              =     -90.64593719 Ry
     estimated scf accuracy    <          5.0E-09 Ry

     The total energy is the sum of the following terms:
     one-electron contribution =      16.27252789 Ry
     hartree contribution      =       5.66294863 Ry
     xc contribution           =     -48.87903127 Ry
     ewald contribution        =     -63.70238244 Ry

     convergence has been achieved in   8 iterations

     Forces acting on atoms (cartesian axes, Ry/au):

     atom    1 type  1   force =     0.00000000    0.00000000    0.00000000
     atom    2 type  1   force =     0.00000085    0.00000085    0.00000085
     atom    3 type  1   force =     0.00000000    0.00000000    0.00000000
     atom    4 type  1   force =    -0.00000085   -0.00000085    0.00000085
     atom    5 type  1   force =     0.00000000    0.00000000    0.00000000
     atom    6 type  1   force =     0.00000000    0.00000000    0.00000000
     atom    7 type  1   force =    -0.00000085    0.00000085   -0.00000085
     atom    8 type  1   force =     0.00000085   -0.00000085   -0.00000085
     The non-local contrib.  to forces
     atom    1 type  1   force =     0.00000000    0.00000000    0.00000000
     atom    2 type  1   force =     0.00000188    0.00000188    0.00000188
     atom    3 type  1   force =     0.00000000    0.00000000    0.00000000
     atom    4 type  1   force =    -0.00000188   -0.00000188    0.00000188
     atom    5 type  1   force =     0.00000000    0.00000000    0.00000000
     atom    6 type  1   force =     0.00000000    0.00000000    0.00000000
     atom    7 type  1   force =    -0.00000188    0.00000188   -0.00000188
     atom    8 type  1   force =     0.00000188   -0.00000188   -0.00000188
     The ionic contribution  to forces
     atom    1 type  1   force =    -0.00000000   -0.00000000   -0.00000000
     atom    2 type  1   force =     0.00000477    0.00000477    0.00000477
     atom    3 type  1   force =    -0.00000000   -0.00000000   -0.00000000
     atom    4 type  1   force =    -0.00000477   -0.00000477    0.00000477
     atom    5 type  1   force =    -0.00000000   -0.00000000   -0.00000000
     atom    6 type  1   force =    -0.00000000   -0.00000000   -0.00000000
     atom    7 type  1   force =    -0.00000477    0.00000477   -0.00000477
     atom    8 type  1   force =     0.00000477   -0.00000477   -0.00000477
     The local contribution  to forces
     atom    1 type  1   force =    -0.00000023   -0.00000011    0.00000046
     atom    2 type  1   force =    -0.00000680   -0.00000596   -0.00000573
     atom    3 type  1   force =    -0.00000031    0.00000056   -0.00000077
     atom    4 type  1   force =     0.00000623    0.00000642   -0.00000621
     atom    5 type  1   force =     0.00000033   -0.00000008    0.00000038
     atom    6 type  1   force =     0.00000049   -0.00000044    0.00000058
     atom    7 type  1   force =     0.00000586   -0.00000536    0.00000545
     atom    8 type  1   force =    -0.00000570    0.00000479    0.00000610
     The core correction contribution to forces
     atom    1 type  1   force =     0.00000001   -0.00000004    0.00000003
     atom    2 type  1   force =    -0.00000002   -0.00000002    0.00000002
     atom    3 type  1   force =    -0.00000003    0.00000016   -0.00000004
     atom    4 type  1   force =     0.00000004    0.00000015    0.00000006
     atom    5 type  1   force =     0.00000001    0.00000003    0.00000001
     atom    6 type  1   force =    -0.00000001   -0.00000017   -0.00000002
     atom    7 type  1   force =    -0.00000008    0.00000005    0.00000004
     atom    8 type  1   force =     0.00000007   -0.00000020   -0.00000007
     The Hubbard contrib.    to forces
     atom    1 type  1   force =     0.00000000    0.00000000    0.00000000
     atom    2 type  1   force =     0.00000000    0.00000000    0.00000000
     atom    3 type  1   force =     0.00000000    0.00000000    0.00000000
     atom    4 type  1   force =     0.00000000    0.00000000    0.00000000
     atom    5 type  1   force =     0.00000000    0.00000000    0.00000000
     atom    6 type  1   force =     0.00000000    0.00000000    0.00000000
     atom    7 type  1   force =     0.00000000    0.00000000    0.00000000
     atom    8 type  1   force =     0.00000000    0.00000000    0.00000000
     The SCF correction term to forces
     atom    1 type  1   force =     0.00000006   -0.00000028   -0.00000121
     atom    2 type  1   force =     0.00000004    0.00000074   -0.00000013
     atom    3 type  1   force =     0.00000003    0.00000024   -0.00000013
     atom    4 type  1   force =    -0.00000009   -0.00000062   -0.00000012
     atom    5 type  1   force =     0.00000001   -0.00000020    0.00000020
     atom    6 type  1   force =     0.00000018    0.00000028    0.00000159
     atom    7 type  1   force =     0.00000106    0.00000077    0.00000002
     atom    8 type  1   force =    -0.00000129   -0.00000094   -0.00000019

     Total force =     0.000003     Total SCF correction =     0.000003
     SCF correction compared to forces is large: reduce conv_thr to get better values


     Computing stress (Cartesian axis) and pressure

          total   stress  (Ry/bohr**3)                   (kbar)     P=        6.23
   0.00004232   0.00000000   0.00000000            6.23        0.00        0.00
   0.00000000   0.00004232   0.00000000            0.00        6.23        0.00
   0.00000000   0.00000000   0.00004232            0.00        0.00        6.23

     Energy error            =      3.4E-03 Ry
     Gradient error          =      8.5E-07 Ry/Bohr
     Cell gradient error     =      6.2E+00 kbar

     number of scf cycles    =   4
     number of bfgs steps    =   3

     enthalpy           old  =     -90.6425855893 Ry
     enthalpy           new  =     -90.6459371902 Ry

     CASE: enthalpy          _new < enthalpy          _old

     new trust radius        =       0.0346465130 bohr
     new conv_thr            =       0.0000000100 Ry

     new unit-cell volume =   1286.70112 a.u.^3 (   190.66943 Ang^3 )
     density =      1.95674 g/cm^3

CELL_PARAMETERS (angstrom)
   5.755640927   0.000000000   0.000000000
   0.000000000   5.755640927   0.000000000
   0.000000000   0.000000000   5.755640927

ATOMIC_POSITIONS (crystal)
Si            0.0000000000        0.0000000000        0.0000000000
Si            0.2499999571        0.2499999571        0.2499999571
Si            0.5000000000        0.5000000000        0.0000000000
Si            0.7500000429        0.7500000429        0.2499999571
Si            0.5000000000        0.0000000000        0.5000000000
Si            0.0000000000        0.5000000000        0.5000000000
Si            0.7500000429        0.2499999571        0.7500000429
Si            0.2499999571        0.7500000429        0.7500000429



     Writing config-only to output data dir ./silicon.save/
     NEW-OLD atomic charge density approx. for the potential

     Check: negative core charge=   -0.000126
     extrapolated charge   32.46244, renormalised to   32.00000

     total cpu time spent up to now is       65.7 secs

     per-process dynamical memory:    39.5 Mb

     Self-consistent Calculation

     iteration #  1     ecut=    12.00 Ry     beta= 0.70
     Davidson diagonalization with overlap
     ethr =  1.00E-06,  avg # of iterations =  3.0

     total cpu time spent up to now is       66.9 secs

     total energy              =     -90.64573103 Ry
     estimated scf accuracy    <       0.00029331 Ry

     iteration #  2     ecut=    12.00 Ry     beta= 0.70
     Davidson diagonalization with overlap
     ethr =  9.17E-07,  avg # of iterations =  3.0

     total cpu time spent up to now is       68.7 secs

     total energy              =     -90.64638387 Ry
     estimated scf accuracy    <       0.00020443 Ry

     iteration #  3     ecut=    12.00 Ry     beta= 0.70
     Davidson diagonalization with overlap
     ethr =  6.39E-07,  avg # of iterations =  1.0

     total cpu time spent up to now is       69.6 secs

     total energy              =     -90.64635970 Ry
     estimated scf accuracy    <       0.00006446 Ry

     iteration #  4     ecut=    12.00 Ry     beta= 0.70
     Davidson diagonalization with overlap
     ethr =  2.01E-07,  avg # of iterations =  2.0

     total cpu time spent up to now is       71.0 secs

     total energy              =     -90.64636710 Ry
     estimated scf accuracy    <       0.00000208 Ry

     iteration #  5     ecut=    12.00 Ry     beta= 0.70
     Davidson diagonalization with overlap
     ethr =  6.49E-09,  avg # of iterations =  1.0

     total cpu time spent up to now is       71.8 secs

     total energy              =     -90.64636718 Ry
     estimated scf accuracy    <       0.00000012 Ry

     iteration #  6     ecut=    12.00 Ry     beta= 0.70
     Davidson diagonalization with overlap
     ethr =  3.81E-10,  avg # of iterations =  5.0

     total cpu time spent up to now is       73.3 secs

     total energy              =     -90.64636725 Ry
     estimated scf accuracy    <       0.00000002 Ry

     iteration #  7     ecut=    12.00 Ry     beta= 0.70
     Davidson diagonalization with overlap
     ethr =  6.74E-11,  avg # of iterations =  2.0

     total cpu time spent up to now is       74.1 secs

     End of self-consistent calculation

          k = 0.0000 0.0000 0.0000 (   376 PWs)   bands (ev):

    -6.0854  -2.5229  -2.5229  -2.5229  -2.5229  -2.5229  -2.5229   2.3385
     2.3385   2.3385   2.3385   2.3385   2.3385   4.8342   4.8342   4.8342

     highest occupied level (ev):     4.8342

!    total energy              =     -90.64636725 Ry
     estimated scf accuracy    <          3.7E-09 Ry

     The total energy is the sum of the following terms:
     one-electron contribution =      15.85412542 Ry
     hartree contribution      =       5.71301787 Ry
     xc contribution           =     -48.81951800 Ry
     ewald contribution        =     -63.39399253 Ry

     convergence has been achieved in   7 iterations

     Forces acting on atoms (cartesian axes, Ry/au):

     atom    1 type  1   force =     0.00000000    0.00000000    0.00000000
     atom    2 type  1   force =     0.00000040    0.00000040    0.00000040
     atom    3 type  1   force =     0.00000000    0.00000000    0.00000000
     atom    4 type  1   force =    -0.00000040   -0.00000040    0.00000040
     atom    5 type  1   force =     0.00000000    0.00000000    0.00000000
     atom    6 type  1   force =     0.00000000    0.00000000    0.00000000
     atom    7 type  1   force =    -0.00000040    0.00000040   -0.00000040
     atom    8 type  1   force =     0.00000040   -0.00000040   -0.00000040
     The non-local contrib.  to forces
     atom    1 type  1   force =     0.00000000    0.00000000    0.00000000
     atom    2 type  1   force =     0.00000023    0.00000023    0.00000023
     atom    3 type  1   force =     0.00000000    0.00000000    0.00000000
     atom    4 type  1   force =    -0.00000023   -0.00000023    0.00000023
     atom    5 type  1   force =     0.00000000    0.00000000    0.00000000
     atom    6 type  1   force =     0.00000000    0.00000000    0.00000000
     atom    7 type  1   force =    -0.00000023    0.00000023   -0.00000023
     atom    8 type  1   force =     0.00000023   -0.00000023   -0.00000023
     The ionic contribution  to forces
     atom    1 type  1   force =    -0.00000000   -0.00000000   -0.00000000
     atom    2 type  1   force =     0.00000059    0.00000059    0.00000059
     atom    3 type  1   force =    -0.00000000   -0.00000000   -0.00000000
     atom    4 type  1   force =    -0.00000059   -0.00000059    0.00000059
     atom    5 type  1   force =    -0.00000000   -0.00000000   -0.00000000
     atom    6 type  1   force =    -0.00000000   -0.00000000   -0.00000000
     atom    7 type  1   force =    -0.00000059    0.00000059   -0.00000059
     atom    8 type  1   force =     0.00000059   -0.00000059   -0.00000059
     The local contribution  to forces
     atom    1 type  1   force =    -0.00000022    0.00000049    0.00000237
     atom    2 type  1   force =    -0.00000041   -0.00000221   -0.00000069
     atom    3 type  1   force =     0.00000011   -0.00000029    0.00000073
     atom    4 type  1   force =     0.00000030    0.00000208   -0.00000083
     atom    5 type  1   force =     0.00000008    0.00000047   -0.00000061
     atom    6 type  1   force =    -0.00000045   -0.00000047   -0.00000268
     atom    7 type  1   force =    -0.00000139   -0.00000227    0.00000104
     atom    8 type  1   force =     0.00000155    0.00000216    0.00000171
     The core correction contribution to forces
     atom    1 type  1   force =    -0.00000007    0.00000006    0.00000009
     atom    2 type  1   force =     0.00000001   -0.00000009    0.00000008
     atom    3 type  1   force =    -0.00000002   -0.00000006    0.00000000
     atom    4 type  1   force =    -0.00000003    0.00000002    0.00000001
     atom    5 type  1   force =     0.00000000   -0.00000000   -0.00000006
     atom    6 type  1   force =     0.00000002    0.00000006   -0.00000006
     atom    7 type  1   force =    -0.00000006    0.00000001   -0.00000004
     atom    8 type  1   force =     0.00000011    0.00000002    0.00000014
     The Hubbard contrib.    to forces
     atom    1 type  1   force =     0.00000000    0.00000000    0.00000000
     atom    2 type  1   force =     0.00000000    0.00000000    0.00000000
     atom    3 type  1   force =     0.00000000    0.00000000    0.00000000
     atom    4 type  1   force =     0.00000000    0.00000000    0.00000000
     atom    5 type  1   force =     0.00000000    0.00000000    0.00000000
     atom    6 type  1   force =     0.00000000    0.00000000    0.00000000
     atom    7 type  1   force =     0.00000000    0.00000000    0.00000000
     atom    8 type  1   force =     0.00000000    0.00000000    0.00000000
     The SCF correction term to forces
     atom    1 type  1   force =     0.00000017   -0.00000090   -0.00000377
     atom    2 type  1   force =    -0.00000098    0.00000299    0.00000015
     atom    3 type  1   force =    -0.00000006    0.00000073   -0.00000180
     atom    4 type  1   force =     0.00000082   -0.00000287    0.00000010
     atom    5 type  1   force =    -0.00000002   -0.00000092    0.00000189
     atom    6 type  1   force =     0.00000051    0.00000108    0.00000454
     atom    7 type  1   force =     0.00000300    0.00000322   -0.00000052
     atom    8 type  1   force =    -0.00000340   -0.00000329   -0.00000070

     Total force =     0.000001     Total SCF correction =     0.000010
     SCF correction compared to forces is large: reduce conv_thr to get better values


     Computing stress (Cartesian axis) and pressure

          total   stress  (Ry/bohr**3)                   (kbar)     P=        0.59
   0.00000403   0.00000000   0.00000000            0.59        0.00        0.00
   0.00000000   0.00000403   0.00000000            0.00        0.59        0.00
   0.00000000   0.00000000   0.00000403            0.00        0.00        0.59

     Energy error            =      4.3E-04 Ry
     Gradient error          =      4.0E-07 Ry/Bohr
     Cell gradient error     =      5.9E-01 kbar

     number of scf cycles    =   5
     number of bfgs steps    =   4

     enthalpy           old  =     -90.6459371902 Ry
     enthalpy           new  =     -90.6463672504 Ry

     CASE: enthalpy          _new < enthalpy          _old

     new trust radius        =       0.0036918752 bohr
     new conv_thr            =       0.0000000100 Ry

     new unit-cell volume =   1288.68859 a.u.^3 (   190.96395 Ang^3 )
     density =      1.95372 g/cm^3

CELL_PARAMETERS (angstrom)
   5.758602837   0.000000000   0.000000000
   0.000000000   5.758602837   0.000000000
   0.000000000   0.000000000   5.758602837

ATOMIC_POSITIONS (crystal)
Si            0.0000000000        0.0000000000        0.0000000000
Si            0.2500000257        0.2500000257        0.2500000257
Si            0.5000000000        0.5000000000        0.0000000000
Si            0.7499999743        0.7499999743        0.2500000257
Si            0.5000000000        0.0000000000        0.5000000000
Si            0.0000000000        0.5000000000        0.5000000000
Si            0.7499999743        0.2500000257        0.7499999743
Si            0.2500000257        0.7499999743        0.7499999743



     Writing config-only to output data dir ./silicon.save/
     NEW-OLD atomic charge density approx. for the potential

     Check: negative core charge=   -0.000127
     extrapolated charge   32.04934, renormalised to   32.00000

     total cpu time spent up to now is       79.2 secs

     per-process dynamical memory:    39.5 Mb

     Self-consistent Calculation

     iteration #  1     ecut=    12.00 Ry     beta= 0.70
     Davidson diagonalization with overlap
     ethr =  1.00E-06,  avg # of iterations =  2.0

     Threshold (ethr) on eigenvalues was too large:
     Diagonalizing with lowered threshold

     Davidson diagonalization with overlap
     ethr =  1.17E-08,  avg # of iterations =  1.0

     total cpu time spent up to now is       99.1 secs

     total energy              =     -90.64636397 Ry
     estimated scf accuracy    <       0.00000355 Ry

     iteration #  2     ecut=    12.00 Ry     beta= 0.70
     Davidson diagonalization with overlap
     ethr =  1.11E-08,  avg # of iterations =  3.0

     total cpu time spent up to now is      101.5 secs

     total energy              =     -90.64637160 Ry
     estimated scf accuracy    <       0.00000234 Ry

     iteration #  3     ecut=    12.00 Ry     beta= 0.70
     Davidson diagonalization with overlap
     ethr =  7.32E-09,  avg # of iterations =  1.0

     total cpu time spent up to now is      103.0 secs

     total energy              =     -90.64637133 Ry
     estimated scf accuracy    <       0.00000073 Ry

     iteration #  4     ecut=    12.00 Ry     beta= 0.70
     Davidson diagonalization with overlap
     ethr =  2.28E-09,  avg # of iterations =  2.0

     total cpu time spent up to now is      104.2 secs

     total energy              =     -90.64637141 Ry
     estimated scf accuracy    <       0.00000003 Ry

     iteration #  5     ecut=    12.00 Ry     beta= 0.70
     Davidson diagonalization with overlap
     ethr =  8.61E-11,  avg # of iterations =  1.0

     total cpu time spent up to now is      105.4 secs

     End of self-consistent calculation

          k = 0.0000 0.0000 0.0000 (   376 PWs)   bands (ev):

    -6.0900  -2.5327  -2.5327  -2.5327  -2.5327  -2.5327  -2.5327   2.3284
     2.3284   2.3284   2.3284   2.3284   2.3284   4.8202   4.8202   4.8202

     highest occupied level (ev):     4.8202

!    total energy              =     -90.64637142 Ry
     estimated scf accuracy    <          1.6E-09 Ry

     The total energy is the sum of the following terms:
     one-electron contribution =      15.80999508 Ry
     hartree contribution      =       5.71826646 Ry
     xc contribution           =     -48.81324683 Ry
     ewald contribution        =     -63.36138613 Ry

     convergence has been achieved in   5 iterations

     Forces acting on atoms (cartesian axes, Ry/au):

     atom    1 type  1   force =     0.00000000    0.00000000    0.00000000
     atom    2 type  1   force =    -0.00000017   -0.00000017   -0.00000017
     atom    3 type  1   force =     0.00000000    0.00000000    0.00000000
     atom    4 type  1   force =     0.00000017    0.00000017   -0.00000017
     atom    5 type  1   force =     0.00000000    0.00000000    0.00000000
     atom    6 type  1   force =     0.00000000    0.00000000    0.00000000
     atom    7 type  1   force =     0.00000017   -0.00000017    0.00000017
     atom    8 type  1   force =    -0.00000017    0.00000017    0.00000017
     The non-local contrib.  to forces
     atom    1 type  1   force =     0.00000000    0.00000000    0.00000000
     atom    2 type  1   force =    -0.00000006   -0.00000006   -0.00000006
     atom    3 type  1   force =     0.00000000    0.00000000    0.00000000
     atom    4 type  1   force =     0.00000006    0.00000006   -0.00000006
     atom    5 type  1   force =     0.00000000    0.00000000    0.00000000
     atom    6 type  1   force =     0.00000000    0.00000000    0.00000000
     atom    7 type  1   force =     0.00000006   -0.00000006    0.00000006
     atom    8 type  1   force =    -0.00000006    0.00000006    0.00000006
     The ionic contribution  to forces
     atom    1 type  1   force =    -0.00000000   -0.00000000   -0.00000000
     atom    2 type  1   force =    -0.00000035   -0.00000035   -0.00000035
     atom    3 type  1   force =    -0.00000000   -0.00000000   -0.00000000
     atom    4 type  1   force =     0.00000035    0.00000035   -0.00000035
     atom    5 type  1   force =    -0.00000000   -0.00000000   -0.00000000
     atom    6 type  1   force =    -0.00000000   -0.00000000   -0.00000000
     atom    7 type  1   force =     0.00000035   -0.00000035    0.00000035
     atom    8 type  1   force =    -0.00000035    0.00000035    0.00000035
     The local contribution  to forces
     atom    1 type  1   force =     0.00000006    0.00000005    0.00000013
     atom    2 type  1   force =     0.00000062   -0.00000014    0.00000003
     atom    3 type  1   force =     0.00000012   -0.00000009    0.00000085
     atom    4 type  1   force =    -0.00000095    0.00000020   -0.00000006
     atom    5 type  1   force =     0.00000018    0.00000006   -0.00000056
     atom    6 type  1   force =     0.00000035    0.00000006    0.00000070
     atom    7 type  1   force =    -0.00000003    0.00000006   -0.00000060
     atom    8 type  1   force =    -0.00000038   -0.00000022   -0.00000064
     The core correction contribution to forces
     atom    1 type  1   force =    -0.00000002    0.00000001   -0.00000000
     atom    2 type  1   force =    -0.00000003   -0.00000003   -0.00000001
     atom    3 type  1   force =    -0.00000000   -0.00000002    0.00000002
     atom    4 type  1   force =    -0.00000001    0.00000000   -0.00000005
     atom    5 type  1   force =     0.00000002   -0.00000002   -0.00000001
     atom    6 type  1   force =     0.00000004    0.00000004    0.00000005
     atom    7 type  1   force =     0.00000004    0.00000001   -0.00000004
     atom    8 type  1   force =    -0.00000004    0.00000001    0.00000003
     The Hubbard contrib.    to forces
     atom    1 type  1   force =     0.00000000    0.00000000    0.00000000
     atom    2 type  1   force =     0.00000000    0.00000000    0.00000000
     atom    3 type  1   force =     0.00000000    0.00000000    0.00000000
     atom    4 type  1   force =     0.00000000    0.00000000    0.00000000
     atom    5 type  1   force =     0.00000000    0.00000000    0.00000000
     atom    6 type  1   force =     0.00000000    0.00000000    0.00000000
     atom    7 type  1   force =     0.00000000    0.00000000    0.00000000
     atom    8 type  1   force =     0.00000000    0.00000000    0.00000000
     The SCF correction term to forces
     atom    1 type  1   force =     0.00000004   -0.00000007   -0.00000018
     atom    2 type  1   force =     0.00000005    0.00000023   -0.00000004
     atom    3 type  1   force =     0.00000003    0.00000011   -0.00000012
     atom    4 type  1   force =     0.00000001   -0.00000015    0.00000004
     atom    5 type  1   force =    -0.00000000    0.00000001    0.00000012
     atom    6 type  1   force =    -0.00000008   -0.00000005    0.00000014
     atom    7 type  1   force =     0.00000001    0.00000017    0.00000010
     atom    8 type  1   force =    -0.00000005   -0.00000024   -0.00000006

     Total force =     0.000001     Total SCF correction =     0.000001
     SCF correction compared to forces is large: reduce conv_thr to get better values


     Computing stress (Cartesian axis) and pressure

          total   stress  (Ry/bohr**3)                   (kbar)     P=        0.03
   0.00000019   0.00000000   0.00000000            0.03        0.00        0.00
   0.00000000   0.00000019   0.00000000            0.00        0.03        0.00
   0.00000000   0.00000000   0.00000019            0.00        0.00        0.03

     Energy error            =      4.2E-06 Ry
     Gradient error          =      1.7E-07 Ry/Bohr
     Cell gradient error     =      2.7E-02 kbar

     bfgs converged in   6 scf cycles and   5 bfgs steps
     (criteria: energy <  1.0E-04 Ry, force <  1.0E-03 Ry/Bohr, cell <  5.0E-01 kbar)

     End of BFGS Geometry Optimization

     Final enthalpy           =     -90.6463714155 Ry

     File ./silicon.bfgs deleted, as requested
Begin final coordinates
     new unit-cell volume =   1288.68859 a.u.^3 (   190.96395 Ang^3 )
     density =      1.95372 g/cm^3

CELL_PARAMETERS (angstrom)
   5.758602837   0.000000000   0.000000000
   0.000000000   5.758602837   0.000000000
   0.000000000   0.000000000   5.758602837

ATOMIC_POSITIONS (crystal)
Si            0.0000000000        0.0000000000        0.0000000000
Si            0.2500000257        0.2500000257        0.2500000257
Si            0.5000000000        0.5000000000        0.0000000000
Si            0.7499999743        0.7499999743        0.2500000257
Si            0.5000000000        0.0000000000        0.5000000000
Si            0.0000000000        0.5000000000        0.5000000000
Si            0.7499999743        0.2500000257        0.7499999743
Si            0.2500000257        0.7499999743        0.7499999743
End final coordinates



     Writing config-only to output data dir ./silicon.save/

     Final scf calculation at the relaxed structure.
     The G-vectors are recalculated for the final unit cell
     Results may differ from those at the preceding step.

     G-vector sticks info
     --------------------
     sticks:   dense  smooth     PW     G-vecs:    dense   smooth      PW
     Sum         437     437    109                 7123     7123     895

     Using Slab Decomposition



     bravais-lattice index     =            0
     lattice parameter (alat)  =      10.2612  a.u.
     unit-cell volume          =    1288.6886 (a.u.)^3
     number of atoms/cell      =            8
     number of atomic types    =            1
     number of electrons       =        32.00
     number of Kohn-Sham states=           16
     kinetic-energy cutoff     =      12.0000  Ry
     charge density cutoff     =      48.0000  Ry
     scf convergence threshold =      1.0E-08
     mixing beta               =       0.7000
     number of iterations used =            8  plain     mixing
     press convergence thresh. =      5.0E-01
     Exchange-correlation= PBE
                           (   1   4   3   4   0   0   0)

     celldm(1)=  10.261213  celldm(2)=   0.000000  celldm(3)=   0.000000
     celldm(4)=   0.000000  celldm(5)=   0.000000  celldm(6)=   0.000000

     crystal axes: (cart. coord. in units of alat)
               a(1) = (   1.060516   0.000000   0.000000 )  
               a(2) = (   0.000000   1.060516   0.000000 )  
               a(3) = (   0.000000   0.000000   1.060516 )  

     reciprocal axes: (cart. coord. in units 2 pi/alat)
               b(1) = (  0.942937  0.000000  0.000000 )  
               b(2) = (  0.000000  0.942937  0.000000 )  
               b(3) = (  0.000000  0.000000  0.942937 )  


     PseudoPot. # 1 for Si read from file:
     /mnt/c/Users/menon/Documents/repos/projects-iuc17/atomRDF/examples/workflow_examples/qe_run/Si.pbe-n-rrkjus_psl.1.0.0.UPF
     MD5 check sum: 0b0bb1205258b0d07b9f9672cf965d36
     Pseudo is Ultrasoft + core correction, Zval =  4.0
     Generated using "atomic" code by A. Dal Corso  v.5.1
     Using radial grid of 1141 points,  6 beta functions with: 
                l(1) =   0
                l(2) =   0
                l(3) =   1
                l(4) =   1
                l(5) =   2
                l(6) =   2
     Q(r) pseudized with 0 coefficients 


     atomic species   valence    mass     pseudopotential
        Si             4.00    28.08500     Si( 1.00)

     24 Sym. Ops. (no inversion) found



   Cartesian axes

     site n.     atom                  positions (alat units)
         1           Si  tau(   1) = (   0.0000000   0.0000000   0.0000000  )
         2           Si  tau(   2) = (   0.2651291   0.2651291   0.2651291  )
         3           Si  tau(   3) = (   0.5302581   0.5302581   0.0000000  )
         4           Si  tau(   4) = (   0.7953871   0.7953871   0.2651291  )
         5           Si  tau(   5) = (   0.5302581   0.0000000   0.5302581  )
         6           Si  tau(   6) = (   0.0000000   0.5302581   0.5302581  )
         7           Si  tau(   7) = (   0.7953871   0.2651291   0.7953871  )
         8           Si  tau(   8) = (   0.2651291   0.7953871   0.7953871  )

     number of k points=     1
                       cart. coord. in units 2pi/alat
        k(    1) = (   0.0000000   0.0000000   0.0000000), wk =   2.0000000

     Dense  grid:     3562 G-vectors     FFT dimensions: (  24,  24,  24)

     Estimated max dynamical RAM per process >      16.04 MB

     Check: negative core charge=   -0.000059

     Initial potential from superposition of free atoms

     starting charge      31.9955, renormalised to      32.0000
     Starting wfcs are   32 randomized atomic wfcs

     total cpu time spent up to now is      108.3 secs

     per-process dynamical memory:    39.5 Mb

     Self-consistent Calculation

     iteration #  1     ecut=    12.00 Ry     beta= 0.70
     Davidson diagonalization with overlap
     ethr =  1.00E-06,  avg # of iterations = 11.0

     total cpu time spent up to now is      113.0 secs

     total energy              =     -90.61321168 Ry
     estimated scf accuracy    <       0.34114600 Ry

     iteration #  2     ecut=    12.00 Ry     beta= 0.70
     Davidson diagonalization with overlap
     ethr =  1.07E-03,  avg # of iterations =  1.0

     negative rho (up, down):  2.885E-06 0.000E+00

     total cpu time spent up to now is      114.5 secs

     total energy              =     -90.62375900 Ry
     estimated scf accuracy    <       0.01730018 Ry

     iteration #  3     ecut=    12.00 Ry     beta= 0.70
     Davidson diagonalization with overlap
     ethr =  5.41E-05,  avg # of iterations =  1.0

     negative rho (up, down):  8.980E-05 0.000E+00

     total cpu time spent up to now is      115.7 secs

     total energy              =     -90.62469841 Ry
     estimated scf accuracy    <       0.00015375 Ry

     iteration #  4     ecut=    12.00 Ry     beta= 0.70
     Davidson diagonalization with overlap
     ethr =  4.80E-07,  avg # of iterations =  5.0

     negative rho (up, down):  9.049E-05 0.000E+00

     total cpu time spent up to now is      117.5 secs

     total energy              =     -90.62492499 Ry
     estimated scf accuracy    <       0.00003042 Ry

     iteration #  5     ecut=    12.00 Ry     beta= 0.70
     Davidson diagonalization with overlap
     ethr =  9.51E-08,  avg # of iterations =  2.0

     negative rho (up, down):  9.184E-05 0.000E+00

     total cpu time spent up to now is      118.9 secs

     total energy              =     -90.62492803 Ry
     estimated scf accuracy    <       0.00000025 Ry

     iteration #  6     ecut=    12.00 Ry     beta= 0.70
     Davidson diagonalization with overlap
     ethr =  7.70E-10,  avg # of iterations =  9.0

     negative rho (up, down):  9.179E-05 0.000E+00

     total cpu time spent up to now is      121.8 secs

     total energy              =     -90.62492933 Ry
     estimated scf accuracy    <       0.00000039 Ry

     iteration #  7     ecut=    12.00 Ry     beta= 0.70
     Davidson diagonalization with overlap
     ethr =  7.70E-10,  avg # of iterations =  1.0

     negative rho (up, down):  9.238E-05 0.000E+00

     total cpu time spent up to now is      122.9 secs

     total energy              =     -90.62492926 Ry
     estimated scf accuracy    <       0.00000045 Ry

     iteration #  8     ecut=    12.00 Ry     beta= 0.70
     Davidson diagonalization with overlap
     ethr =  7.70E-10,  avg # of iterations =  2.0

     negative rho (up, down):  9.255E-05 0.000E+00

     total cpu time spent up to now is      124.2 secs

     total energy              =     -90.62492927 Ry
     estimated scf accuracy    <       0.00000012 Ry

     iteration #  9     ecut=    12.00 Ry     beta= 0.70
     Davidson diagonalization with overlap
     ethr =  3.76E-10,  avg # of iterations =  5.0

     negative rho (up, down):  9.256E-05 0.000E+00

     total cpu time spent up to now is      125.5 secs

     total energy              =     -90.62492928 Ry
     estimated scf accuracy    <       0.00000004 Ry

     iteration # 10     ecut=    12.00 Ry     beta= 0.70
     Davidson diagonalization with overlap
     ethr =  1.39E-10,  avg # of iterations =  5.0

     negative rho (up, down):  9.253E-05 0.000E+00

     total cpu time spent up to now is      127.6 secs

     total energy              =     -90.62492929 Ry
     estimated scf accuracy    <       0.00000004 Ry

     iteration # 11     ecut=    12.00 Ry     beta= 0.70
     Davidson diagonalization with overlap
     ethr =  1.17E-10,  avg # of iterations =  1.0

     negative rho (up, down):  9.254E-05 0.000E+00

     total cpu time spent up to now is      128.5 secs

     total energy              =     -90.62492928 Ry
     estimated scf accuracy    <       0.00000004 Ry

     iteration # 12     ecut=    12.00 Ry     beta= 0.70
     Davidson diagonalization with overlap
     ethr =  1.15E-10,  avg # of iterations =  2.0

     negative rho (up, down):  9.257E-05 0.000E+00

     total cpu time spent up to now is      129.8 secs

     total energy              =     -90.62492928 Ry
     estimated scf accuracy    <       0.00000001 Ry

     iteration # 13     ecut=    12.00 Ry     beta= 0.70
     Davidson diagonalization with overlap
     ethr =  3.39E-11,  avg # of iterations =  7.0

     negative rho (up, down):  9.256E-05 0.000E+00

     total cpu time spent up to now is      131.0 secs

     total energy              =     -90.62492929 Ry
     estimated scf accuracy    <       0.00000003 Ry

     iteration # 14     ecut=    12.00 Ry     beta= 0.70
     Davidson diagonalization with overlap
     ethr =  3.39E-11,  avg # of iterations =  2.0

     negative rho (up, down):  9.262E-05 0.000E+00

     total cpu time spent up to now is      132.1 secs

     total energy              =     -90.62492928 Ry
     estimated scf accuracy    <       0.00000002 Ry

     iteration # 15     ecut=    12.00 Ry     beta= 0.70
     Davidson diagonalization with overlap
     ethr =  3.39E-11,  avg # of iterations =  3.0

     negative rho (up, down):  9.261E-05 0.000E+00

     total cpu time spent up to now is      133.4 secs

     End of self-consistent calculation

          k = 0.0000 0.0000 0.0000 (   448 PWs)   bands (ev):

    -6.0878  -2.5353  -2.5352  -2.5352  -2.5352  -2.5352  -2.5351   2.3242
     2.3242   2.3242   2.3242   2.3242   2.3242   4.8109   4.8109   4.8109

     highest occupied level (ev):     4.8109

!    total energy              =     -90.62492928 Ry
     estimated scf accuracy    <          6.7E-09 Ry

     The total energy is the sum of the following terms:
     one-electron contribution =      15.79740810 Ry
     hartree contribution      =       5.71282811 Ry
     xc contribution           =     -48.77377936 Ry
     ewald contribution        =     -63.36138612 Ry

     convergence has been achieved in  15 iterations

     negative rho (up, down):  9.261E-05 0.000E+00

     Forces acting on atoms (cartesian axes, Ry/au):

     atom    1 type  1   force =     0.00000000    0.00000000    0.00000000
     atom    2 type  1   force =     0.00000073    0.00000073    0.00000073
     atom    3 type  1   force =     0.00000000    0.00000000    0.00000000
     atom    4 type  1   force =    -0.00000073   -0.00000073    0.00000073
     atom    5 type  1   force =     0.00000000    0.00000000    0.00000000
     atom    6 type  1   force =     0.00000000    0.00000000    0.00000000
     atom    7 type  1   force =    -0.00000073    0.00000073   -0.00000073
     atom    8 type  1   force =     0.00000073   -0.00000073   -0.00000073
     The non-local contrib.  to forces
     atom    1 type  1   force =     0.00000000    0.00000000    0.00000000
     atom    2 type  1   force =     0.00000047    0.00000047    0.00000047
     atom    3 type  1   force =     0.00000000    0.00000000    0.00000000
     atom    4 type  1   force =    -0.00000047   -0.00000047    0.00000047
     atom    5 type  1   force =     0.00000000    0.00000000    0.00000000
     atom    6 type  1   force =     0.00000000    0.00000000    0.00000000
     atom    7 type  1   force =    -0.00000047    0.00000047   -0.00000047
     atom    8 type  1   force =     0.00000047   -0.00000047   -0.00000047
     The ionic contribution  to forces
     atom    1 type  1   force =    -0.00000000   -0.00000000   -0.00000000
     atom    2 type  1   force =    -0.00000035   -0.00000035   -0.00000035
     atom    3 type  1   force =     0.00000000    0.00000000   -0.00000000
     atom    4 type  1   force =     0.00000035    0.00000035   -0.00000035
     atom    5 type  1   force =     0.00000000   -0.00000000    0.00000000
     atom    6 type  1   force =    -0.00000000    0.00000000    0.00000000
     atom    7 type  1   force =     0.00000035   -0.00000035    0.00000035
     atom    8 type  1   force =    -0.00000035    0.00000035    0.00000035
     The local contribution  to forces
     atom    1 type  1   force =    -0.00001204    0.00005682   -0.00001120
     atom    2 type  1   force =     0.00001672    0.00000524   -0.00000811
     atom    3 type  1   force =    -0.00001540   -0.00005572   -0.00003442
     atom    4 type  1   force =    -0.00001408    0.00002748   -0.00000671
     atom    5 type  1   force =     0.00000922    0.00005740    0.00000516
     atom    6 type  1   force =     0.00001754   -0.00004621    0.00003372
     atom    7 type  1   force =    -0.00001444    0.00000226    0.00000742
     atom    8 type  1   force =     0.00001036   -0.00002643    0.00000171
     The core correction contribution to forces
     atom    1 type  1   force =    -0.00000051    0.00000307    0.00000047
     atom    2 type  1   force =     0.00000042    0.00000041   -0.00000030
     atom    3 type  1   force =    -0.00000012   -0.00000226   -0.00000017
     atom    4 type  1   force =    -0.00000027    0.00000134   -0.00000039
     atom    5 type  1   force =     0.00000041    0.00000310   -0.00000078
     atom    6 type  1   force =     0.00000035   -0.00000195    0.00000049
     atom    7 type  1   force =    -0.00000024    0.00000036    0.00000053
     atom    8 type  1   force =     0.00000013   -0.00000066    0.00000035
     The Hubbard contrib.    to forces
     atom    1 type  1   force =     0.00000000    0.00000000    0.00000000
     atom    2 type  1   force =     0.00000000    0.00000000    0.00000000
     atom    3 type  1   force =     0.00000000    0.00000000    0.00000000
     atom    4 type  1   force =     0.00000000    0.00000000    0.00000000
     atom    5 type  1   force =     0.00000000    0.00000000    0.00000000
     atom    6 type  1   force =     0.00000000    0.00000000    0.00000000
     atom    7 type  1   force =     0.00000000    0.00000000    0.00000000
     atom    8 type  1   force =     0.00000000    0.00000000    0.00000000
     The SCF correction term to forces
     atom    1 type  1   force =     0.00000805   -0.00002796    0.00001757
     atom    2 type  1   force =    -0.00001207   -0.00000105    0.00000812
     atom    3 type  1   force =     0.00001386    0.00003287    0.00003574
     atom    4 type  1   force =     0.00001119   -0.00001665    0.00000596
     atom    5 type  1   force =    -0.00000640   -0.00002883   -0.00001423
     atom    6 type  1   force =    -0.00001298    0.00002686   -0.00003272
     atom    7 type  1   force =     0.00001354    0.00000084   -0.00000496
     atom    8 type  1   force =    -0.00000879    0.00002230   -0.00000212

     Total force =     0.000003     Total SCF correction =     0.000090
     SCF correction compared to forces is large: reduce conv_thr to get better values


     Computing stress (Cartesian axis) and pressure


     negative rho (up, down):  9.261E-05 0.000E+00
          total   stress  (Ry/bohr**3)                   (kbar)     P=      -37.09
  -0.00025212   0.00000000   0.00000000          -37.09        0.00        0.00
   0.00000000  -0.00025212   0.00000000            0.00      -37.09        0.00
   0.00000000   0.00000000  -0.00025212            0.00        0.00      -37.09


     Writing all to output data dir ./silicon.save/

     init_run     :     12.97s CPU      2.08s WALL (       2 calls)
     electrons    :    896.24s CPU    116.59s WALL (       7 calls)
     update_pot   :      8.26s CPU      1.13s WALL (       5 calls)
     forces       :     46.71s CPU      5.99s WALL (       7 calls)
     stress       :     57.74s CPU      7.55s WALL (       7 calls)

     Called by init_run:
     wfcinit      :      6.57s CPU      0.83s WALL (       2 calls)
     potinit      :      0.38s CPU      0.05s WALL (       2 calls)
     hinit0       :      3.07s CPU      0.82s WALL (       2 calls)

     Called by electrons:
     c_bands      :    582.15s CPU     75.65s WALL (      60 calls)
     sum_band     :    188.94s CPU     24.68s WALL (      60 calls)
     v_of_rho     :     20.82s CPU      2.71s WALL (      66 calls)
     newd         :    106.37s CPU     13.80s WALL (      66 calls)
     mix_rho      :      7.19s CPU      0.92s WALL (      60 calls)

     Called by c_bands:
     init_us_2    :      0.37s CPU      0.06s WALL (     122 calls)
     init_us_2:cp :      0.36s CPU      0.06s WALL (     122 calls)
     regterg      :    573.47s CPU     74.56s WALL (      60 calls)

     Called by *egterg:
     rdiaghg      :     46.85s CPU      5.82s WALL (     234 calls)
     h_psi        :    475.19s CPU     62.13s WALL (     242 calls)
     s_psi        :     27.40s CPU      3.65s WALL (     242 calls)
     g_psi        :      6.70s CPU      0.85s WALL (     180 calls)

     Called by h_psi:
     h_psi:calbec :     74.36s CPU      9.44s WALL (     242 calls)
     vloc_psi     :    368.76s CPU     48.62s WALL (     242 calls)
     add_vuspsi   :     20.62s CPU      2.68s WALL (     242 calls)

     General routines
     calbec       :    118.49s CPU     15.08s WALL (     337 calls)
     fft          :     42.93s CPU      5.40s WALL (     740 calls)
     ffts         :      1.27s CPU      0.17s WALL (      60 calls)
     fftw         :    443.84s CPU     59.00s WALL (    3504 calls)

     Parallel routines

     PWSCF        :  17m17.37s CPU   2m15.64s WALL


   This run was terminated on:  12:26: 9  24Jul2024            

=------------------------------------------------------------------------------=
   JOB DONE.
=------------------------------------------------------------------------------=
